Title: kicad schematic
Date: Sat Oct 25 17:40:46  2025
Plotname: Transient Analysis
Flags: real
No. Variables: 63
No. Points: 508     
Variables:
	0	time	time
	1	v(out1)	voltage
	2	v(net-_r2-pad2_)	voltage
	3	v(in)	voltage
	4	v(unconnected-_x1-pad13_)	voltage
	5	v(x1.net-_q25-pad1_)	voltage
	6	v(x1.net-_q23-pad1_)	voltage
	7	v(unconnected-_x1-pad14_)	voltage
	8	v(unconnected-_x1-pad11_)	voltage
	9	v(x1.net-_q19-pad3_)	voltage
	10	v(x1.net-_q21-pad1_)	voltage
	11	v(x1.net-_q27-pad2_)	voltage
	12	v(x1.net-_q13-pad2_)	voltage
	13	v(x1.net-_q3-pad1_)	voltage
	14	v(x1.net-_q1-pad3_)	voltage
	15	v(x1.net-_q11-pad3_)	voltage
	16	v(x1.net-_q18-pad1_)	voltage
	17	v(x1.net-_q24-pad2_)	voltage
	18	v(unconnected-_x1-pad9_)	voltage
	19	v(x1.net-_q17-pad3_)	voltage
	20	v(unconnected-_x1-pad8_)	voltage
	21	v(x1.net-_q10-pad1_)	voltage
	22	v(unconnected-_x1-pad1_)	voltage
	23	v(unconnected-_x1-pad6_)	voltage
	24	v(x1.net-_q10-pad2_)	voltage
	25	v(x1.net-_q5-pad1_)	voltage
	26	v(unconnected-_x1-pad7_)	voltage
	27	v(x1.net-_q2-pad3_)	voltage
	28	v(unconnected-_x1-pad10_)	voltage
	29	v(q.x1.q29#collCX)	voltage
	30	v(q.x1.q5#collCX)	voltage
	31	v(q.x1.q10#collCX)	voltage
	32	v(q.x1.q2#collCX)	voltage
	33	v(q.x1.q12#collCX)	voltage
	34	v(q.x1.q18#collCX)	voltage
	35	v(q.x1.q26#collCX)	voltage
	36	v(q.x1.q17#collCX)	voltage
	37	v(q.x1.q24#collCX)	voltage
	38	v(q.x1.q3#collCX)	voltage
	39	v(q.x1.q8#collCX)	voltage
	40	v(q.x1.q11#collCX)	voltage
	41	v(q.x1.q1#collCX)	voltage
	42	v(q.x1.q21#collCX)	voltage
	43	v(q.x1.q27#collCX)	voltage
	44	v(q.x1.q19#collCX)	voltage
	45	v(q.x1.q25#collCX)	voltage
	46	v(q.x1.q6#collCX)	voltage
	47	v(q.x1.q9#collCX)	voltage
	48	v(q.x1.q16#collCX)	voltage
	49	v(q.x1.q14#collCX)	voltage
	50	v(q.x1.q23#collCX)	voltage
	51	v(q.x1.q20#collCX)	voltage
	52	v(q.x1.q15#collCX)	voltage
	53	v(q.x1.q13#collCX)	voltage
	54	v(q.x1.q4#collCX)	voltage
	55	v(q.x1.q7#collCX)	voltage
	56	v(q.x1.q22#collCX)	voltage
	57	v(q.x1.q30#collCX)	voltage
	58	v(q.x1.q28#collCX)	voltage
	59	v(q.x1.q31#collCX)	voltage
	60	v(q.x1.q32#collCX)	voltage
	61	i(v2)	current
	62	i(v1)	current
Values:
0		0.000000000000000e+00
	2.520044836280929e-02
	1.500000000000000e+01
	7.500000000000000e+00
	2.367942942038661e-02
	3.101531318204471e-01
	3.101518714388797e-01
	2.367942942038661e-02
	1.434073025327999e+01
	1.463605343556260e+01
	2.835641073638991e-01
	1.463606296358368e+01
	8.434534021939148e+00
	8.158729350736220e+00
	1.071021144536072e+00
	8.430991856775085e+00
	2.835640870357798e-01
	1.463606313503904e+01
	1.434073023127236e+01
	1.463605345474425e+01
	1.434073979132910e+01
	3.101517554385611e-01
	2.367942942038661e-02
	1.434073950015078e+01
	1.463606296338975e+01
	2.835642982499755e-01
	1.434072995887217e+01
	1.463605324751545e+01
	1.434073957966156e+01
	5.779855457276387e-11
	2.835642989353691e-01
	3.101517561235442e-01
	5.779836903555075e-11
	5.779870028681527e-11
	2.835640877211679e-01
	5.779848088336340e-11
	5.779824953262208e-11
	3.101518721238584e-01
	1.490443015185198e+01
	1.487053242315896e+01
	3.943219169929932e-01
	9.125047290940328e-01
	2.835641080492877e-01
	3.101531325054301e-01
	5.779817384255862e-11
	3.101531309921843e-01
	2.835642974220678e-01
	3.101517546102923e-01
	2.367942942038661e-02
	1.499999999719789e+01
	3.101518706106177e-01
	2.835640862078789e-01
	2.370296840764557e-02
	5.629603926413255e+00
	1.624886940092154e-01
	1.795539953684456e-01
	2.835641065359975e-01
	2.367942942038661e-02
	1.499999999719788e+01
	1.499999999719774e+01
	2.367942942038661e-02
	3.330732901809186e-03
	-3.529178313769572e+01
1		1.000000000000000e-06
	2.520044836280932e-02
	1.500000000000000e+01
	7.500314159260191e+00
	2.367942942038664e-02
	3.101531317107972e-01
	3.101518713236087e-01
	2.367942942038664e-02
	1.434073025328804e+01
	1.463605343556702e+01
	2.835641073505323e-01
	1.463606296359573e+01
	8.434532369001142e+00
	8.158729350428453e+00
	1.071021144535993e+00
	8.431301147367950e+00
	2.835640870222090e-01
	1.463606313503974e+01
	1.434073023126615e+01
	1.463605345473711e+01
	1.434073979132744e+01
	3.101517553221505e-01
	2.367942942038664e-02
	1.434073950016530e+01
	1.463606296339802e+01
	2.835642982362379e-01
	1.434072995887671e+01
	1.463605324752312e+01
	1.434073957967487e+01
	5.779858248234444e-11
	2.835642989216315e-01
	3.101517560071338e-01
	5.779837856814888e-11
	5.779873071988647e-11
	2.835640877075972e-01
	5.779847740282514e-11
	5.779823650538108e-11
	3.101518720085875e-01
	1.490443015184941e+01
	1.487052954978775e+01
	3.943000221633071e-01
	9.125047290939234e-01
	2.835641080359210e-01
	3.101531323957805e-01
	5.779819071074993e-11
	3.101531308825352e-01
	2.835642974083302e-01
	3.101517544938824e-01
	2.367942942038664e-02
	1.499999999719775e+01
	3.101518704953474e-01
	2.835640861943080e-01
	2.370296840764560e-02
	5.629604869842253e+00
	1.624886940036445e-01
	1.795538846103166e-01
	2.835641065226306e-01
	2.367942942038664e-02
	1.499999999719774e+01
	1.499999999719761e+01
	2.367942942038664e-02
	3.330445625393086e-03
	-3.529174957837743e+01
2		2.000000000000001e-06
	2.520044836280941e-02
	1.500000000000000e+01
	7.500628318489376e+00
	2.367942942038633e-02
	3.101531315980356e-01
	3.101518712079848e-01
	2.367942942038633e-02
	1.434073025329309e+01
	1.463605343556954e+01
	2.835641073370609e-01
	1.463606296359696e+01
	8.434530220264309e+00
	8.158729350033324e+00
	1.071021144535895e+00
	8.431610734981820e+00
	2.835640870089347e-01
	1.463606313504206e+01
	1.434073023125564e+01
	1.463605345472715e+01
	1.434073979133418e+01
	3.101517552109820e-01
	2.367942942038633e-02
	1.434073950016185e+01
	1.463606296339298e+01
	2.835642982237013e-01
	1.434072995888918e+01
	1.463605324753322e+01
	1.434073957967596e+01
	5.779855683757493e-11
	2.835642989090949e-01
	3.101517558959653e-01
	5.779839521838802e-11
	5.779869305063724e-11
	2.835640876943229e-01
	5.779849501094604e-11
	5.779822749001899e-11
	3.101518718929636e-01
	1.490443015184591e+01
	1.487052582871305e+01
	3.942780855333297e-01
	9.125047290937695e-01
	2.835641080224496e-01
	3.101531322830189e-01
	5.779818441985277e-11
	3.101531307697735e-01
	2.835642973957935e-01
	3.101517543827138e-01
	2.367942942038633e-02
	1.499999999719775e+01
	3.101518703797234e-01
	2.835640861810337e-01
	2.370296840764569e-02
	5.629606103283194e+00
	1.624886939958050e-01
	1.795537208243285e-01
	2.835641065091594e-01
	2.367942942038633e-02
	1.499999999719774e+01
	1.499999999719761e+01
	2.367942942038633e-02
	3.330188435686110e-03
	-3.529171520861831e+01
3		4.000000000000002e-06
	2.520044836280953e-02
	1.500000000000000e+01
	7.501256636730703e+00
	2.367942942038651e-02
	3.101531313727739e-01
	3.101518709763537e-01
	2.367942942038651e-02
	1.434073025330235e+01
	1.463605343557375e+01
	2.835641073085409e-01
	1.463606296360916e+01
	8.434525642841752e+00
	8.158729349196200e+00
	1.071021144535699e+00
	8.432229911157268e+00
	2.835640869823612e-01
	1.463606313502679e+01
	1.434073023124369e+01
	1.463605345471377e+01
	1.434073979132475e+01
	3.101517549875082e-01
	2.367942942038651e-02
	1.434073950016966e+01
	1.463606296339096e+01
	2.835642981984031e-01
	1.434072995890353e+01
	1.463605324755080e+01
	1.434073957968810e+01
	5.779857776945312e-11
	2.835642988837967e-01
	3.101517556724916e-01
	5.779837296754718e-11
	5.779872385891960e-11
	2.835640876677495e-01
	5.779844698417793e-11
	5.779824649229657e-11
	3.101518716613325e-01
	1.490443015183829e+01
	1.487051791421879e+01
	3.942342126223650e-01
	9.125047290934539e-01
	2.835641079939296e-01
	3.101531320577573e-01
	5.779818266748388e-11
	3.101531305445119e-01
	2.835642973704953e-01
	3.101517541592401e-01
	2.367942942038651e-02
	1.499999999719775e+01
	3.101518701480924e-01
	2.835640861544603e-01
	2.370296840764581e-02
	5.629608734271042e+00
	1.624886939786394e-01
	1.795533544936949e-01
	2.835641064806393e-01
	2.367942942038651e-02
	1.499999999719774e+01
	1.499999999719761e+01
	2.367942942038651e-02
	3.329674187053544e-03
	-3.529164603659290e+01
4		8.000000000000003e-06
	2.520044836280920e-02
	1.500000000000000e+01
	7.502513271477004e+00
	2.367942942038670e-02
	3.101531309278298e-01
	3.101518705132967e-01
	2.367942942038670e-02
	1.434073025330368e+01
	1.463605343556925e+01
	2.835641072525251e-01
	1.463606296365623e+01
	8.434516210419543e+00
	8.158729347477424e+00
	1.071021144535330e+00
	8.433468261807295e+00
	2.835640869304990e-01
	1.463606313496275e+01
	1.434073023123311e+01
	1.463605345470173e+01
	1.434073979126760e+01
	3.101517545403014e-01
	2.367942942038670e-02
	1.434073950022001e+01
	1.463606296341193e+01
	2.835642981503504e-01
	1.434072995894433e+01
	1.463605324759499e+01
	1.434073957974926e+01
	5.779859546735952e-11
	2.835642988357441e-01
	3.101517552252848e-01
	5.779840791547476e-11
	5.779872938326848e-11
	2.835640876158872e-01
	5.779845485989028e-11
	5.779824148211654e-11
	3.101518711982756e-01
	1.490443015182236e+01
	1.487050162184755e+01
	3.941464673426367e-01
	9.125047290928086e-01
	2.835641079379138e-01
	3.101531316128131e-01
	5.779816634830558e-11
	3.101531300995677e-01
	2.835642973224429e-01
	3.101517537120333e-01
	2.367942942038670e-02
	1.499999999719775e+01
	3.101518696850354e-01
	2.835640861025981e-01
	2.370296840764548e-02
	5.629614158953992e+00
	1.624886939426294e-01
	1.795525764646244e-01
	2.835641064246235e-01
	2.367942942038670e-02
	1.499999999719774e+01
	1.499999999719761e+01
	2.367942942038670e-02
	3.328645792428975e-03
	-3.529150727088999e+01
5		1.600000000000001e-05
	2.520044836280948e-02
	1.500000000000000e+01
	7.505026527078819e+00
	2.367942942038638e-02
	3.101531300396417e-01
	3.101518695921960e-01
	2.367942942038638e-02
	1.434073025329091e+01
	1.463605343552494e+01
	2.835641071483905e-01
	1.463606296374862e+01
	8.434497478640303e+00
	8.158729344061367e+00
	1.071021144534578e+00
	8.435944949421794e+00
	2.835640868261358e-01
	1.463606313488750e+01
	1.434073023126298e+01
	1.463605345471055e+01
	1.434073979122813e+01
	3.101517536386082e-01
	2.367942942038638e-02
	1.434073950030209e+01
	1.463606296344756e+01
	2.835642980557672e-01
	1.434072995911394e+01
	1.463605324772934e+01
	1.434073957990142e+01
	5.779859328963781e-11
	2.835642987411608e-01
	3.101517543235915e-01
	5.779841903616040e-11
	5.779871397828027e-11
	2.835640875115240e-01
	5.779848608067768e-11
	5.779827320348718e-11
	3.101518702771748e-01
	1.490443015179077e+01
	1.487046925964168e+01
	3.939709771877773e-01
	9.125047290915138e-01
	2.835641078337792e-01
	3.101531307246251e-01
	5.779817452118090e-11
	3.101531292113797e-01
	2.835642972278594e-01
	3.101517528103401e-01
	2.367942942038638e-02
	1.499999999719775e+01
	3.101518687639346e-01
	2.835640859982348e-01
	2.370296840764576e-02
	5.629624930096957e+00
	1.624886938714121e-01
	1.795510415957387e-01
	2.835641063204888e-01
	2.367942942038638e-02
	1.499999999719774e+01
	1.499999999719760e+01
	2.367942942038638e-02
	3.326589435468041e-03
	-3.529122994381343e+01
6		3.200000000000001e-05
	2.520044836280923e-02
	1.500000000000000e+01
	7.510052927156731e+00
	2.367942942038645e-02
	3.101531282375677e-01
	3.101518677663151e-01
	2.367942942038645e-02
	1.434073025317685e+01
	1.463605343536069e+01
	2.835641069260612e-01
	1.463606296384928e+01
	8.434459821246451e+00
	8.158729337195716e+00
	1.071021144533081e+00
	8.440898215019949e+00
	2.835640866075288e-01
	1.463606313475526e+01
	1.434073023132801e+01
	1.463605345469155e+01
	1.434073979122790e+01
	3.101517518352568e-01
	2.367942942038645e-02
	1.434073950045265e+01
	1.463606296347113e+01
	2.835642978566013e-01
	1.434072995952475e+01
	1.463605324802768e+01
	1.434073958008078e+01
	5.779856245170930e-11
	2.835642985419949e-01
	3.101517525202402e-01
	5.779842642069621e-11
	5.779872549199912e-11
	2.835640872929170e-01
	5.779847519333969e-11
	5.779824266725129e-11
	3.101518684512940e-01
	1.490443015172725e+01
	1.487040420517089e+01
	3.936200037216935e-01
	9.125047290889186e-01
	2.835641076114498e-01
	3.101531289225510e-01
	5.779814299010813e-11
	3.101531274093057e-01
	2.835642970286935e-01
	3.101517510069887e-01
	2.367942942038645e-02
	1.499999999719775e+01
	3.101518669380538e-01
	2.835640857796279e-01
	2.370296840764552e-02
	5.629646585213729e+00
	1.624886937280534e-01
	1.795479492303517e-01
	2.835641060981596e-01
	2.367942942038645e-02
	1.499999999719774e+01
	1.499999999719760e+01
	2.367942942038645e-02
	3.322478472550183e-03
	-3.529067499767109e+01
7		6.400000000000002e-05
	2.520044836280937e-02
	1.500000000000000e+01
	7.520104838325458e+00
	2.367942942038659e-02
	3.101531246631843e-01
	3.101518641912330e-01
	2.367942942038659e-02
	1.434073025288798e+01
	1.463605343512501e+01
	2.835641064948748e-01
	1.463606296413811e+01
	8.434384304675904e+00
	8.158729323425792e+00
	1.071021144530083e+00
	8.450803869689757e+00
	2.835640861774956e-01
	1.463606313448034e+01
	1.434073023112947e+01
	1.463605345447163e+01
	1.434073979114032e+01
	3.101517482610858e-01
	2.367942942038659e-02
	1.434073950081540e+01
	1.463606296358934e+01
	2.835642974852934e-01
	1.434072995999044e+01
	1.463605324844590e+01
	1.434073958036588e+01
	5.779858350683079e-11
	2.835642981706870e-01
	3.101517489460692e-01
	5.779837208952143e-11
	5.779872137414845e-11
	2.835640868628838e-01
	5.779847407589148e-11
	5.779822993487041e-11
	3.101518648762119e-01
	1.490443015159988e+01
	1.487027374288272e+01
	3.929181141420628e-01
	9.125047290837166e-01
	2.835641071802635e-01
	3.101531253481676e-01
	5.779816656786909e-11
	3.101531238349223e-01
	2.835642966573857e-01
	3.101517474328177e-01
	2.367942942038659e-02
	1.499999999719775e+01
	3.101518633629716e-01
	2.835640853495946e-01
	2.370296840764565e-02
	5.629690010518869e+00
	1.624886934407019e-01
	1.795417545858271e-01
	2.835641056669732e-01
	2.367942942038659e-02
	1.499999999719774e+01
	1.499999999719760e+01
	2.367942942038659e-02
	3.314263936952777e-03
	-3.528956486599935e+01
8		1.280000000000000e-04
	2.520044836280928e-02
	1.500000000000000e+01
	7.540201549362953e+00
	2.367942942038663e-02
	3.101531177225150e-01
	3.101518571182768e-01
	2.367942942038663e-02
	1.434073025262448e+01
	1.463605343478222e+01
	2.835641057441796e-01
	1.463606296496951e+01
	8.434231964782274e+00
	8.158729295647927e+00
	1.071021144523985e+00
	8.470608167937714e+00
	2.835640853516056e-01
	1.463606313384206e+01
	1.434073023094111e+01
	1.463605345425344e+01
	1.434073979084398e+01
	3.101517411782885e-01
	2.367942942038663e-02
	1.434073950139957e+01
	1.463606296373070e+01
	2.835642967756292e-01
	1.434072996018211e+01
	1.463605324879656e+01
	1.434073958149659e+01
	5.779859864299192e-11
	2.835642974610227e-01
	3.101517418632719e-01
	5.779837814681616e-11
	5.779871496327371e-11
	2.835640860369938e-01
	5.779846628297660e-11
	5.779825625336529e-11
	3.101518578032556e-01
	1.490443015134288e+01
	1.487001056183794e+01
	3.915148137276958e-01
	9.125047290732209e-01
	2.835641064295683e-01
	3.101531184074983e-01
	5.779816353408162e-11
	3.101531168942530e-01
	2.835642959477216e-01
	3.101517403500205e-01
	2.367942942038663e-02
	1.499999999719775e+01
	3.101518562900154e-01
	2.835640845237047e-01
	2.370296840764555e-02
	5.629777614470478e+00
	1.624886928609057e-01
	1.795292566017206e-01
	2.835641049162781e-01
	2.367942942038663e-02
	1.499999999719774e+01
	1.499999999719760e+01
	2.367942942038663e-02
	3.297867273812094e-03
	-3.528734322334927e+01
9		2.280000000000001e-04
	2.520044836280937e-02
	1.500000000000000e+01
	7.571567078661418e+00
	2.367942942038637e-02
	3.101531071558927e-01
	3.101518461888118e-01
	2.367942942038637e-02
	1.434073025264150e+01
	1.463605343474737e+01
	2.835641046678219e-01
	1.463606296665291e+01
	8.433990848004035e+00
	8.158729251678063e+00
	1.071021144514386e+00
	8.501517305864310e+00
	2.835640841590608e-01
	1.463606313284865e+01
	1.434073023060975e+01
	1.463605345358358e+01
	1.434073979038666e+01
	3.101517301362500e-01
	2.367942942038637e-02
	1.434073950171735e+01
	1.463606296331776e+01
	2.835642955611398e-01
	1.434072996053973e+01
	1.463605324910868e+01
	1.434073958395717e+01
	5.779861063475499e-11
	2.835642962465333e-01
	3.101517308212333e-01
	5.779837473824309e-11
	5.779869426157672e-11
	2.835640848444489e-01
	5.779847269872178e-11
	5.779822770369960e-11
	3.101518468737906e-01
	1.490443015093613e+01
	1.486959400032760e+01
	3.893245937807706e-01
	9.125047290566142e-01
	2.835641053532106e-01
	3.101531078408760e-01
	5.779818431028112e-11
	3.101531063276307e-01
	2.835642947332321e-01
	3.101517293079820e-01
	2.367942942038637e-02
	1.499999999719775e+01
	3.101518453605505e-01
	2.835640833311600e-01
	2.370296840764564e-02
	5.629916271384253e+00
	1.624886919432325e-01
	1.795094897714870e-01
	2.835641038399204e-01
	2.367942942038637e-02
	1.499999999719774e+01
	1.499999999719761e+01
	2.367942942038637e-02
	3.272347333589720e-03
	-3.528387048547027e+01
10		3.280000000000002e-04
	2.520044836280930e-02
	1.500000000000000e+01
	7.602861979893642e+00
	2.367942942038648e-02
	3.101530966327714e-01
	3.101518354363564e-01
	2.367942942038648e-02
	1.434073025284528e+01
	1.463605343507457e+01
	2.835641036318784e-01
	1.463606296784585e+01
	8.433745909325596e+00
	8.158729207008147e+00
	1.071021144504652e+00
	8.532356817029211e+00
	2.835640830947520e-01
	1.463606313233055e+01
	1.434073022923956e+01
	1.463605345238368e+01
	1.434073979014193e+01
	3.101517193014409e-01
	2.367942942038648e-02
	1.434073950144057e+01
	1.463606296286395e+01
	2.835642943268807e-01
	1.434072996088186e+01
	1.463605324942726e+01
	1.434073958546385e+01
	5.779855663248708e-11
	2.835642950122743e-01
	3.101517199864242e-01
	5.779837737137735e-11
	5.779868835669829e-11
	2.835640837801401e-01
	5.779847371145555e-11
	5.779821237028236e-11
	3.101518361213352e-01
	1.490443015052287e+01
	1.486917082915227e+01
	3.871392489355543e-01
	9.125047290397393e-01
	2.835641043172671e-01
	3.101530973177545e-01
	5.779817149942395e-11
	3.101530958045094e-01
	2.835642934989732e-01
	3.101517184731728e-01
	2.367942942038648e-02
	1.499999999719775e+01
	3.101518346080951e-01
	2.835640822668511e-01
	2.370296840764558e-02
	5.630057129581471e+00
	1.624886910108590e-01
	1.794894191634553e-01
	2.835641028039770e-01
	2.367942942038648e-02
	1.499999999719774e+01
	1.499999999719761e+01
	2.367942942038648e-02
	3.246970783356562e-03
	-3.528039861001663e+01
11		4.280000000000002e-04
	2.520044836280948e-02
	1.500000000000000e+01
	7.634055368770388e+00
	2.367942942038638e-02
	3.101530861775392e-01
	3.101518249504343e-01
	2.367942942038638e-02
	1.434073025232167e+01
	1.463605343452960e+01
	2.835641026007590e-01
	1.463606296807332e+01
	8.433497405220001e+00
	8.158729161683103e+00
	1.071021144494734e+00
	8.563096256251836e+00
	2.835640821726314e-01
	1.463606313178237e+01
	1.434073022799557e+01
	1.463605345146127e+01
	1.434073978982303e+01
	3.101517088591016e-01
	2.367942942038638e-02
	1.434073950053124e+01
	1.463606296212131e+01
	2.835642931759125e-01
	1.434072996100466e+01
	1.463605324947341e+01
	1.434073958580626e+01
	5.779856101567082e-11
	2.835642938613060e-01
	3.101517095440850e-01
	5.779836535397168e-11
	5.779866771016432e-11
	2.835640828580197e-01
	5.779846866335094e-11
	5.779823389758832e-11
	3.101518256354131e-01
	1.490443015010358e+01
	1.486874148651300e+01
	3.849609370009688e-01
	9.125047290226195e-01
	2.835641032861476e-01
	3.101530868625224e-01
	5.779815398863573e-11
	3.101530853492774e-01
	2.835642923480050e-01
	3.101517080308336e-01
	2.367942942038638e-02
	1.499999999719775e+01
	3.101518241221730e-01
	2.835640813447306e-01
	2.370296840764576e-02
	5.630200040329469e+00
	1.624886900649105e-01
	1.794690726424412e-01
	2.835641017728576e-01
	2.367942942038638e-02
	1.499999999719774e+01
	1.499999999719761e+01
	2.367942942038638e-02
	3.221761847243099e-03
	-3.527693104196909e+01
12		5.280000000000003e-04
	2.520044836280939e-02
	1.500000000000000e+01
	7.665116461182858e+00
	2.367942942038669e-02
	3.101530759736308e-01
	3.101518148288269e-01
	2.367942942038669e-02
	1.434073025149523e+01
	1.463605343383013e+01
	2.835641016543164e-01
	1.463606296879233e+01
	8.433245349253692e+00
	8.158729115706860e+00
	1.071021144484688e+00
	8.593705277295470e+00
	2.835640814154749e-01
	1.463606313118006e+01
	1.434073022733337e+01
	1.463605345062111e+01
	1.434073978945366e+01
	3.101516986084091e-01
	2.367942942038669e-02
	1.434073949955082e+01
	1.463606296116097e+01
	2.835642921676417e-01
	1.434072996110281e+01
	1.463605324967622e+01
	1.434073958661760e+01
	5.779857592101547e-11
	2.835642928530352e-01
	3.101516992933924e-01
	5.779837638891839e-11
	5.779868571607307e-11
	2.835640821008632e-01
	5.779847074281683e-11
	5.779823703471711e-11
	3.101518155138058e-01
	1.490443014967824e+01
	1.486830599983378e+01
	3.827918094528400e-01
	9.125047290052475e-01
	2.835641023397051e-01
	3.101530766586140e-01
	5.779815898934620e-11
	3.101530751453689e-01
	2.835642913397342e-01
	3.101516977801411e-01
	2.367942942038669e-02
	1.499999999719776e+01
	3.101518140005657e-01
	2.835640805875742e-01
	2.370296840764567e-02
	5.630344997295571e+00
	1.624886891052655e-01
	1.794484457465639e-01
	2.835641008264150e-01
	2.367942942038669e-02
	1.499999999719774e+01
	1.499999999719761e+01
	2.367942942038669e-02
	3.196744334728496e-03
	-3.527347083989923e+01
13		6.280000000000003e-04
	2.520044836280946e-02
	1.500000000000000e+01
	7.696014603582893e+00
	2.367942942038672e-02
	3.101530658655691e-01
	3.101518050023851e-01
	2.367942942038672e-02
	1.434073025075093e+01
	1.463605343314456e+01
	2.835641007929338e-01
	1.463606296954127e+01
	8.432990022560658e+00
	8.158729069128951e+00
	1.071021144474545e+00
	8.624153662860106e+00
	2.835640807838211e-01
	1.463606313041571e+01
	1.434073022684294e+01
	1.463605345002362e+01
	1.434073978901712e+01
	3.101516886323578e-01
	2.367942942038672e-02
	1.434073949874142e+01
	1.463606296025458e+01
	2.835642912407162e-01
	1.434072996157633e+01
	1.463605325028107e+01
	1.434073958719027e+01
	5.779855115991308e-11
	2.835642919261097e-01
	3.101516893173412e-01
	5.779838153351527e-11
	5.779867473905547e-11
	2.835640814692094e-01
	5.779846481496263e-11
	5.779824057728352e-11
	3.101518056873640e-01
	1.490443014924735e+01
	1.486786485020017e+01
	3.806340084089896e-01
	9.125047289876498e-01
	2.835641014783225e-01
	3.101530665505522e-01
	5.779815777321203e-11
	3.101530650373072e-01
	2.835642904128086e-01
	3.101516878040897e-01
	2.367942942038672e-02
	1.499999999719776e+01
	3.101518041741238e-01
	2.835640799559204e-01
	2.370296840764573e-02
	5.630491837596838e+00
	1.624886881331492e-01
	1.794275679715664e-01
	2.835640999650324e-01
	2.367942942038672e-02
	1.499999999719775e+01
	1.499999999719761e+01
	2.367942942038672e-02
	3.171941625203956e-03
	-3.527002146562050e+01
14		7.280000000000003e-04
	2.520044836280949e-02
	1.500000000000000e+01
	7.726719303234321e+00
	2.367942942038649e-02
	3.101530557415422e-01
	3.101517954534607e-01
	2.367942942038649e-02
	1.434073024966736e+01
	1.463605343243753e+01
	2.835641000659549e-01
	1.463606296949050e+01
	8.432731463865423e+00
	8.158729021957807e+00
	1.071021144464211e+00
	8.654411354540976e+00
	2.835640802304358e-01
	1.463606312921881e+01
	1.434073022631059e+01
	1.463605344955373e+01
	1.434073978822372e+01
	3.101516789814108e-01
	2.367942942038649e-02
	1.434073949838962e+01
	1.463606295967695e+01
	2.835642903214055e-01
	1.434072996196431e+01
	1.463605325064004e+01
	1.434073958685146e+01
	5.779853854420437e-11
	2.835642910067989e-01
	3.101516796663942e-01
	5.779837298987444e-11
	5.779870431617544e-11
	2.835640809158241e-01
	5.779845442927990e-11
	5.779823519386636e-11
	3.101517961384397e-01
	1.490443014881094e+01
	1.486741810829956e+01
	3.784896653867236e-01
	9.125047289698300e-01
	2.835641007513437e-01
	3.101530564265253e-01
	5.779814555733595e-11
	3.101530549132804e-01
	2.835642894934980e-01
	3.101516781531429e-01
	2.367942942038649e-02
	1.499999999719776e+01
	3.101517946251995e-01
	2.835640794025351e-01
	2.370296840764577e-02
	5.630640540379008e+00
	1.624886871485799e-01
	1.794064371984818e-01
	2.835640992380536e-01
	2.367942942038649e-02
	1.499999999719775e+01
	1.499999999719761e+01
	2.367942942038649e-02
	3.147376647111177e-03
	-3.526658598875569e+01
15		8.280000000000004e-04
	2.520044836280924e-02
	1.500000000000000e+01
	7.757200258305611e+00
	2.367942942038659e-02
	3.101530458487735e-01
	3.101517861174571e-01
	2.367942942038659e-02
	1.434073024830780e+01
	1.463605343182606e+01
	2.835640995329937e-01
	1.463606296899910e+01
	8.432469982185692e+00
	8.158728974248177e+00
	1.071021144453776e+00
	8.684448482538427e+00
	2.835640797888907e-01
	1.463606312771268e+01
	1.434073022593104e+01
	1.463605344916970e+01
	1.434073978711925e+01
	3.101516695550839e-01
	2.367942942038659e-02
	1.434073949838753e+01
	1.463606295934070e+01
	2.835642894749438e-01
	1.434072996206661e+01
	1.463605325067149e+01
	1.434073958649869e+01
	5.779855084831084e-11
	2.835642901603372e-01
	3.101516702400672e-01
	5.779836936772995e-11
	5.779868837723884e-11
	2.835640804742790e-01
	5.779845028538297e-11
	5.779824709128452e-11
	3.101517868024361e-01
	1.490443014836959e+01
	1.486696630367879e+01
	3.763608983140188e-01
	9.125047289518065e-01
	2.835641002183824e-01
	3.101530465337566e-01
	5.779814826135298e-11
	3.101530450205116e-01
	2.835642886470363e-01
	3.101516687268160e-01
	2.367942942038659e-02
	1.499999999719776e+01
	3.101517852891958e-01
	2.835640789609900e-01
	2.370296840764552e-02
	5.630790926753052e+00
	1.624886861528399e-01
	1.793850848055942e-01
	2.835640987050923e-01
	2.367942942038659e-02
	1.499999999719775e+01
	1.499999999719761e+01
	2.367942942038659e-02
	3.123071865293592e-03
	-3.526316788114721e+01
16		9.280000000000004e-04
	2.520044836280937e-02
	1.500000000000000e+01
	7.787427387774117e+00
	2.367942942038668e-02
	3.101530362438383e-01
	3.101517770753251e-01
	2.367942942038668e-02
	1.434073024719624e+01
	1.463605343131699e+01
	2.835640991086033e-01
	1.463606296961235e+01
	8.432205644662039e+00
	8.158728926013602e+00
	1.071021144443268e+00
	8.714235395266622e+00
	2.835640794411459e-01
	1.463606312647164e+01
	1.434073022600248e+01
	1.463605344917579e+01
	1.434073978611237e+01
	3.101516602190182e-01
	2.367942942038668e-02
	1.434073949894882e+01
	1.463606295951236e+01
	2.835642886838748e-01
	1.434072996205703e+01
	1.463605325050758e+01
	1.434073958711265e+01
	5.779857883629112e-11
	2.835642893692684e-01
	3.101516609040015e-01
	5.779836788445283e-11
	5.779872661664712e-11
	2.835640801265342e-01
	5.779845735143769e-11
	5.779825398237401e-11
	3.101517777603041e-01
	1.490443014792335e+01
	1.486650955593606e+01
	3.742498102925396e-01
	9.125047289335850e-01
	2.835640997939921e-01
	3.101530369288214e-01
	5.779815844067399e-11
	3.101530354155765e-01
	2.835642878559674e-01
	3.101516593907502e-01
	2.367942942038669e-02
	1.499999999719776e+01
	3.101517762470639e-01
	2.835640786132452e-01
	2.370296840764565e-02
	5.630942959464437e+00
	1.624886851460695e-01
	1.793635112576146e-01
	2.835640982807020e-01
	2.367942942038669e-02
	1.499999999719775e+01
	1.499999999719761e+01
	2.367942942038669e-02
	3.099049262794917e-03
	-3.525977021678179e+01
17		1.028000000000000e-03
	2.520044836280922e-02
	1.500000000000000e+01
	7.817370861112418e+00
	2.367942942038669e-02
	3.101530266410873e-01
	3.101517682653994e-01
	2.367942942038669e-02
	1.434073024674589e+01
	1.463605343104924e+01
	2.835640986398497e-01
	1.463606297076505e+01
	8.431938791574401e+00
	8.158728877314633e+00
	1.071021144432633e+00
	8.743742688659053e+00
	2.835640791048308e-01
	1.463606312525492e+01
	1.434073022594546e+01
	1.463605344910534e+01
	1.434073978485404e+01
	3.101516511520907e-01
	2.367942942038669e-02
	1.434073949985011e+01
	1.463606296015019e+01
	2.835642879656153e-01
	1.434072996186840e+01
	1.463605325015380e+01
	1.434073958810697e+01
	5.779856709440277e-11
	2.835642886510089e-01
	3.101516518370741e-01
	5.779836126917184e-11
	5.779870143922804e-11
	2.835640797902191e-01
	5.779843938301014e-11
	5.779824155727748e-11
	3.101517689503784e-01
	1.490443014747284e+01
	1.486604844892737e+01
	3.721584866534045e-01
	9.125047289151716e-01
	2.835640993252385e-01
	3.101530273260705e-01
	5.779817743571540e-11
	3.101530258128256e-01
	2.835642871377080e-01
	3.101516503238227e-01
	2.367942942038669e-02
	1.499999999719776e+01
	3.101517674371381e-01
	2.835640782769301e-01
	2.370296840764550e-02
	5.631096441670834e+00
	1.624886841296784e-01
	1.793417500768947e-01
	2.835640978119484e-01
	2.367942942038669e-02
	1.499999999719775e+01
	1.499999999719761e+01
	2.367942942038669e-02
	3.075330331055115e-03
	-3.525639647112503e+01
18		1.128000000000001e-03
	2.520044836280919e-02
	1.500000000000000e+01
	7.847001127727450e+00
	2.367942942038669e-02
	3.101530170142896e-01
	3.101517596786836e-01
	2.367942942038669e-02
	1.434073024634267e+01
	1.463605343050270e+01
	2.835640981403218e-01
	1.463606297171050e+01
	8.431669521698524e+00
	8.158728828170549e+00
	1.071021144421861e+00
	8.772941235307586e+00
	2.835640788205783e-01
	1.463606312400748e+01
	1.434073022544549e+01
	1.463605344867289e+01
	1.434073978351333e+01
	3.101516421150789e-01